 # Bismite - Bi2 O3
 
          20  atoms
           2  atom types
 
      0.00000000       5.83000000  xlo xhi
      0.00000000       8.14000000  ylo yhi
      0.00000000       6.88894188  zlo zhi
      0.00000000       2.91425459       0.00000000  xy xz yz
 
Masses
 
           1   208.98040000    # Bi
           2   15.99900000    # O 
 
Atoms # charge
 
         1    1   3.000000        4.88215166       1.52625000       4.37447809
         2    1   3.000000        0.88890728       0.35002000       1.55001192
         3    2  -2.000000        4.50635445       2.26292000       2.17690563
         4    2  -2.000000        4.00804077       0.21978000       0.77845043
         5    2  -2.000000        1.48047711       0.68376000       3.16891326
         6    1   3.000000        5.31923022       5.59625000       5.95893472
         7    1   3.000000        6.39822001       4.42002000       1.89445902
         8    2  -2.000000        2.78077284       6.33292000       1.26756531
         9    2  -2.000000        3.27908653       4.28978000       2.66602051
        10    2  -2.000000        5.80665018       4.75376000       0.27555768
        11    1   3.000000        3.86210292       6.61375000       2.51446379
        12    1   3.000000        7.85534731       7.78998000       5.33892996
        13    2  -2.000000        4.23790014       5.87708000       4.71203624
        14    2  -2.000000        4.73621382       7.92022000       6.11049145
        15    2  -2.000000        7.26377748       7.45624000       3.72002861
        16    1   3.000000        3.42502437       2.54375000       0.93000715
        17    1   3.000000        2.34603458       3.71998000       4.99448286
        18    2  -2.000000        5.96348174       1.80708000       5.62137657
        19    2  -2.000000        5.46516806       3.85022000       4.22292137
        20    2  -2.000000        2.93760440       3.38624000       6.61338420
