 # Sphaerobismoite - for our purposes want to have these lmp files in charge format, write a script for this
 
          20  atoms
           2  atom types
 
      0.00000000       7.73900000  xlo xhi
      0.00000000       7.73900000  ylo yhi
      0.00000000       5.63600000  zlo zhi
 
Masses
 
           1   208.98040000    # Bi
           2   15.99900000    # O 
 
Atoms # atomic
 
         1    1   3      0.13465860       1.96957550       1.34418600
         2    2  -2      2.24817950       2.41843750       0.16118960
         3    2  -2      0.00000000       3.86950000       2.22002040
         4    1   3      1.89992450       3.73484140       4.16218600
         5    2  -2      1.45106250       1.62132050       2.97918960
         6    2  -2      0.00000000       3.86950000       5.03802040
         7    1   3      1.96957550       7.60434140       4.29181400
         8    2  -2      2.41843750       5.49082050       5.47481040
         9    2  -2      3.86950000       7.73900000       3.41597960
        10    1   3      3.73484140       5.83907550       1.47381400
        11    2  -2      1.62132050       6.28793750       2.65681040
        12    2  -2      3.86950000       0.00000000       0.59797960
        13    1   3      7.60434140       5.76942450       1.34418600
        14    2  -2      5.49082050       5.32056250       0.16118960
        15    1   3      5.83907550       4.00415860       4.16218600
        16    2  -2      6.28793750       6.11767950       2.97918960
        17    1   3      5.76942450       0.13465860       4.29181400
        18    2  -2      5.32056250       2.24817950       5.47481040
        19    1   3      4.00415860       1.89992450       1.47381400
        20    2  -2      6.11767950       1.45106250       2.65681040
