 # 	 Bi2  O3
 
          20  atoms
           2  atom types
 
      0.00000000       4.95550000  xlo xhi
      0.00000000       5.58540000  ylo yhi
      0.00000000      12.72990000  zlo zhi
 
Masses
 
           1   208.98040000    # Bi
           2   15.99900000    # O 
 
Atoms # atomic
 
         1    1   3      0.17398761       1.77185644       4.75354834
         2    2  -2      1.86227690       0.92829348       5.61770487
         3    2  -2      1.23887500       2.82118554       3.18247500
         4    1   3      2.30376240       1.77185644       1.61140166
         5    2  -2      0.61547310       0.92829348       0.74724513
         6    1   3      2.65173761       1.02084356       7.97635166
         7    2  -2      4.34002690       1.86440652       7.11219513
         8    2  -2      3.71662500       5.55691446       9.54742500
         9    1   3      4.78151240       1.02084356      11.11849834
        10    2  -2      3.09322310       1.86440652      11.98265487
        11    1   3      4.78151240       3.81354356       7.97635166
        12    2  -2      3.09322310       4.65710652       7.11219513
        13    2  -2      3.71662500       2.76421446       9.54742500
        14    1   3      2.65173761       3.81354356      11.11849834
        15    2  -2      4.34002690       4.65710652      11.98265487
        16    1   3      2.30376240       4.56455644       4.75354834
        17    2  -2      0.61547310       3.72099348       5.61770487
        18    2  -2      1.23887500       0.02848554       3.18247500
        19    1   3      0.17398761       4.56455644       1.61140166
        20    2  -2      1.86227690       3.72099348       0.74724513
