 # File generated with Atomsk by lenny on 2018-10-20 14:28:18
 
          66  atoms
           2  atom types
 
      0.00000000      10.25010000  xlo xhi
      0.00000000      10.25010000  ylo yhi
      0.00000000      10.25010000  zlo zhi
 
Masses
 
           1   208.98040000    # Bi
           2   15.99900000    # O 
 
Atoms # atomic
 
         1    1        1.80401760       3.28310703       0.09840096
         2    1        0.00000000       0.00000000       0.00000000
         3    2        1.39913865       2.53792476       5.16400038
         4    2        1.92086874       1.92086874       1.92086874
         5    2        9.10721385       9.10721385       9.10721385
         6    1        6.92906760       8.40815703       5.22345096
         7    1        5.12505000       5.12505000       5.12505000
         8    2        6.52418865       7.66297476       0.03895038
         9    2        7.04591874       7.04591874       7.04591874
        10    2        3.98216385       3.98216385       3.98216385
        11    1       10.15169904       8.44608240       3.28310703
        12    2        5.08609962       8.85096135       2.53792476
        13    2        8.32923126       8.32923126       1.92086874
        14    2        1.14288615       1.14288615       9.10721385
        15    1        5.02664904       3.32103240       8.40815703
        16    2       10.21114962       3.72591135       7.66297476
        17    2        3.20418126       3.20418126       7.04591874
        18    2        6.26793615       6.26793615       3.98216385
        19    1        1.84194297       5.22345096       3.32103240
        20    2        2.58712524       0.03895038       3.72591135
        21    2        3.20418126       7.04591874       3.20418126
        22    2        6.26793615       3.98216385       6.26793615
        23    1        6.96699297       0.09840096       8.44608240
        24    2        7.71217524       5.16400038       8.85096135
        25    2        8.32923126       1.92086874       8.32923126
        26    2        1.14288615       9.10721385       1.14288615
        27    1       10.15169904       1.80401760       6.96699297
        28    2        5.08609962       1.39913865       7.71217524
        29    1        5.02664904       6.92906760       1.84194297
        30    2       10.21114962       6.52418865       2.58712524
        31    1        6.96699297      10.15169904       1.80401760
        32    2        7.71217524       5.08609962       1.39913865
        33    1        1.84194297       5.02664904       6.92906760
        34    2        2.58712524      10.21114962       6.52418865
        35    1        6.92906760       1.84194297       5.02664904
        36    2        6.52418865       2.58712524      10.21114962
        37    2        7.04591874       3.20418126       3.20418126
        38    2        3.98216385       6.26793615       6.26793615
        39    1        1.80401760       6.96699297      10.15169904
        40    2        1.39913865       7.71217524       5.08609962
        41    2        1.92086874       8.32923126       8.32923126
        42    2        9.10721385       1.14288615       1.14288615
        43    1        8.40815703       5.02664904       3.32103240
        44    2        7.66297476      10.21114962       3.72591135
        45    1        3.28310703      10.15169904       8.44608240
        46    2        2.53792476       5.08609962       8.85096135
        47    1        3.32103240       1.84194297       5.22345096
        48    2        3.72591135       2.58712524       0.03895038
        49    1        8.44608240       6.96699297       0.09840096
        50    2        8.85096135       7.71217524       5.16400038
        51    1        0.09840096       1.80401760       3.28310703
        52    2        5.16400038       1.39913865       2.53792476
        53    1        5.22345096       6.92906760       8.40815703
        54    2        0.03895038       6.52418865       7.66297476
        55    1        0.09840096       8.44608240       6.96699297
        56    2        5.16400038       8.85096135       7.71217524
        57    1        5.22345096       3.32103240       1.84194297
        58    2        0.03895038       3.72591135       2.58712524
        59    1        3.28310703       0.09840096       1.80401760
        60    2        2.53792476       5.16400038       1.39913865
        61    1        8.40815703       5.22345096       6.92906760
        62    2        7.66297476       0.03895038       6.52418865
        63    1        3.32103240       8.40815703       5.02664904
        64    2        3.72591135       7.66297476      10.21114962
        65    1        8.44608240       3.28310703      10.15169904
        66    2        8.85096135       2.53792476       5.08609962
